 Gaussian 16, Revision C.01,
 Gaussian 16:  ES64L-G16RevC.01  3-Jul-2019

 ------------------------------------------
 # m062x/6-311+g** opt=(tight,modredundant)
 ------------------------------------------

 -------------------
 Title Card Required
 -------------------
 Symbolic Z-matrix:
 Charge =  0 Multiplicity = 1

 SCF Done:  E(RM062X) =  -1104.75283645     A.U. after   16 cycles
 SCF Done:  E(RM062X) =  -1104.75509204     A.U. after   13 cycles
 SCF Done:  E(RM062X) =  -1104.75529084     A.U. after   13 cycles
 SCF Done:  E(RM062X) =  -1104.75528851     A.U. after   13 cycles
 SCF Done:  E(RM062X) =  -1104.75532131     A.U. after   12 cycles
 SCF Done:  E(RM062X) =  -1104.75532276     A.U. after   12 cycles
 SCF Done:  E(RM062X) =  -1104.75532453     A.U. after   11 cycles
 SCF Done:  E(RM062X) =  -1104.75532547     A.U. after   12 cycles
 SCF Done:  E(RM062X) =  -1104.75532573     A.U. after   11 cycles
 SCF Done:  E(RM062X) =  -1104.75532580     A.U. after   10 cycles
 Optimization completed.
    -- Stationary point found.
 Optimization completed.
 SCF Done:  E(RM062X) =  -1104.75606116     A.U. after   10 cycles
 SCF Done:  E(RM062X) =  -1104.75606117     A.U. after   10 cycles
 SCF Done:  E(RM062X) =  -1104.75575303     A.U. after   12 cycles
 SCF Done:  E(RM062X) =  -1104.75575599     A.U. after   11 cycles
 SCF Done:  E(RM062X) =  -1104.75575598     A.U. after    8 cycles
 SCF Done:  E(RM062X) =  -1104.75575598     A.U. after    8 cycles
    -- Stationary point found.
 SCF Done:  E(RM062X) =  -1104.75536277     A.U. after   12 cycles
 SCF Done:  E(RM062X) =  -1104.75536581     A.U. after   12 cycles
 SCF Done:  E(RM062X) =  -1104.75536580     A.U. after    8 cycles
 SCF Done:  E(RM062X) =  -1104.75536582     A.U. after    8 cycles
 Optimization completed.
    -- Stationary point found.

                         Standard orientation:
 ---------------------------------------------------------------------
 Center     Atomic      Atomic             Coordinates (Angstroms)
 Number     Number       Type             X           Y           Z
 ---------------------------------------------------------------------
      1          6           0       -3.187921   -0.164057   -0.059039
      2          6           0       -2.842762    1.114357    0.258457
      3          6           0       -1.432621    1.296090    0.332215
      4          6           0       -0.729923    0.150332    0.072171
      5         16           0       -1.804068   -1.162025   -0.290680
      6          1           0       -4.175667   -0.582499   -0.173968
      7          1           0       -3.565010    1.897459    0.442220
      8          1           0       -0.951446    2.230615    0.589345
      9          6           0        0.711358   -0.048358    0.065055
     10          6           0        1.336888   -1.240742    0.339034
     11         16           0        1.894190    1.169270   -0.284033
     12          6           0        2.754345   -1.172489    0.274041
     13          1           0        0.788392   -2.135404    0.603595
     14          6           0        3.196950    0.074840   -0.044385
     15          1           0        3.411950   -2.008759    0.465362
     16          1           0        4.211949    0.422833   -0.156443
 ---------------------------------------------------------------------

 The electronic state is 1-A.
 Alpha  occ. eigenvalues --  -89.93059 -89.92919 -10.58823 -10.58770 -10.57427
 Alpha  occ. eigenvalues --  -10.57386 -10.55083 -10.55043 -10.54994 -10.54911
 Alpha  occ. eigenvalues --   -8.29613  -8.29485  -6.21685  -6.21556  -6.21468
 Alpha  occ. eigenvalues --   -6.21339  -6.21250  -6.21117  -1.00635  -0.98237
 Alpha  occ. eigenvalues --   -0.86742  -0.83958  -0.82688  -0.79559  -0.68154
 Alpha  occ. eigenvalues --   -0.65740  -0.62663  -0.60771  -0.60147  -0.54656
 Alpha  occ. eigenvalues --   -0.48193  -0.48099  -0.47810  -0.46494  -0.45689
 Alpha  occ. eigenvalues --   -0.44429  -0.43551  -0.41309  -0.40020  -0.33490
 Alpha  occ. eigenvalues --   -0.31328  -0.30983  -0.26303
 Alpha virt. eigenvalues --   -0.02201   0.01000   0.01490   0.02553   0.02926
 Alpha virt. eigenvalues --    0.03178   0.03595   0.04242   0.04411   0.04701
 Alpha virt. eigenvalues --    0.05640   0.06209   0.06572   0.06777   0.07456

 Mulliken charges:
               1
     1  C    0.098660
     2  C   -0.643515
     3  C    0.762760
     4  C   -0.022256
     5  S   -0.429966
     6  H    0.187015
     7  H    0.164841
     8  H    0.169741
     9  C   -0.481882
    10  C    0.650696
    11  S   -0.389746
    12  C   -0.638954
    13  H    0.169394
    14  C    0.048876
    15  H    0.164682
    16  H    0.189653
 Sum of Mulliken charges =  -0.00000

 Dipole moment (field-independent basis, Debye):
    X=             -0.0043    Y=             -0.0330    Z=              0.3021  Tot=              0.3040
 Quadrupole moment (field-independent basis, Debye-Ang):
   XX=            -60.1495   YY=            -68.1841   ZZ=            -78.4195
   XY=             -1.3541   XZ=             -0.0389   YZ=              0.0135

 Normal termination of Gaussian 16 at Fri Jan 15 00:19:34 2021.
