 Gaussian 16, Revision C.01,
 Gaussian 16:  ES64L-G16RevC.01  3-Jul-2019

 ------------------------------------------
 # m062x/6-311+g** opt=(tight,modredundant)
 ------------------------------------------

 -------------------
 Title Card Required
 -------------------
 Symbolic Z-matrix:
 Charge =  0 Multiplicity = 1

 SCF Done:  E(RM062X) =  -1104.75645626     A.U. after   15 cycles
 Optimization completed.
    -- Stationary point found.
 SCF Done:  E(RM062X) =  -1104.75610664     A.U. after   15 cycles
 SCF Done:  E(RM062X) =  -1104.75624816     A.U. after   14 cycles
 SCF Done:  E(RM062X) =  -1104.75629715     A.U. after   12 cycles
 SCF Done:  E(RM062X) =  -1104.75630488     A.U. after   10 cycles
 SCF Done:  E(RM062X) =  -1104.75630653     A.U. after    9 cycles
 SCF Done:  E(RM062X) =  -1104.75630658     A.U. after    9 cycles
 SCF Done:  E(RM062X) =  -1104.75630659     A.U. after    6 cycles
 Optimization completed.
 SCF Done:  E(RM062X) =  -1104.75578924     A.U. after   13 cycles
 SCF Done:  E(RM062X) =  -1104.75609512     A.U. after   14 cycles
 SCF Done:  E(RM062X) =  -1104.75630721     A.U. after   13 cycles
 SCF Done:  E(RM062X) =  -1104.75630755     A.U. after   11 cycles
 SCF Done:  E(RM062X) =  -1104.75630756     A.U. after    8 cycles
 SCF Done:  E(RM062X) =  -1104.75630756     A.U. after    7 cycles
 SCF Done:  E(RM062X) =  -1104.75630756     A.U. after    7 cycles
    -- Stationary point found.
 SCF Done:  E(RM062X) =  -1104.75625140     A.U. after   14 cycles
 SCF Done:  E(RM062X) =  -1104.75645576     A.U. after   14 cycles
 SCF Done:  E(RM062X) =  -1104.75645625     A.U. after   11 cycles
 SCF Done:  E(RM062X) =  -1104.75645626     A.U. after    9 cycles
 SCF Done:  E(RM062X) =  -1104.75645626     A.U. after    7 cycles
 Optimization completed.
    -- Stationary point found.

                         Standard orientation:
 ---------------------------------------------------------------------
 Center     Atomic      Atomic             Coordinates (Angstroms)
 Number     Number       Type             X           Y           Z
 ---------------------------------------------------------------------
      1          6           0       -3.182718   -0.139375   -0.061129
      2          6           0       -2.807518    1.132536    0.248826
      3          6           0       -1.394024    1.281066    0.330813
      4          6           0       -0.718018    0.117635    0.078557
      5         16           0       -1.822160   -1.172155   -0.275690
      6          1           0       -4.179947   -0.533198   -0.180878
      7          1           0       -3.511021    1.934863    0.422041
      8          1           0       -0.893727    2.205418    0.588184
      9          6           0        0.718019   -0.117638    0.078540
     10          6           0        1.394029   -1.281079    0.330736
     11         16           0        1.822156    1.172167   -0.275671
     12          6           0        2.807521   -1.132547    0.248730
     13          1           0        0.893736   -2.205442    0.588077
     14          6           0        3.182717    0.139377   -0.061177
     15          1           0        3.511028   -1.934881    0.421900
     16          1           0        4.179944    0.533204   -0.180926
 ---------------------------------------------------------------------

 The electronic state is 1-A.
 Alpha  occ. eigenvalues --  -89.92901 -89.92901 -10.58828 -10.58776 -10.57395
 Alpha  occ. eigenvalues --  -10.57395 -10.55109 -10.55109 -10.55039 -10.55039
 Alpha  occ. eigenvalues --   -8.29467  -8.29467  -6.21539  -6.21538  -6.21321
 Alpha  occ. eigenvalues --   -6.21321  -6.21102  -6.21102  -1.00642  -0.98191
 Alpha  occ. eigenvalues --   -0.86699  -0.84003  -0.82675  -0.79553  -0.68128
 Alpha  occ. eigenvalues --   -0.65770  -0.62726  -0.60790  -0.60199  -0.54544
 Alpha  occ. eigenvalues --   -0.48179  -0.48119  -0.47852  -0.46601  -0.45674
 Alpha  occ. eigenvalues --   -0.44397  -0.43456  -0.41328  -0.40023  -0.33501
 Alpha  occ. eigenvalues --   -0.31348  -0.30965  -0.26319
 Alpha virt. eigenvalues --   -0.02218   0.00981   0.01487   0.02556   0.02926
 Alpha virt. eigenvalues --    0.03177   0.03603   0.04257   0.04411   0.04663
 Alpha virt. eigenvalues --    0.05686   0.06304   0.06473   0.06784   0.07515

 Mulliken charges:
               1
     1  C    0.091588
     2  C   -0.636076
     3  C    0.784227
     4  C   -0.332234
     5  S   -0.429946
     6  H    0.186917
     7  H    0.164786
     8  H    0.170735
     9  C   -0.332229
    10  C    0.784227
    11  S   -0.429946
    12  C   -0.636076
    13  H    0.170735
    14  C    0.091588
    15  H    0.164786
    16  H    0.186917
 Sum of Mulliken charges =  -0.00000

 Dipole moment (field-independent basis, Debye):
    X=              0.0000    Y=             -0.0000    Z=              0.2806  Tot=              0.2806
 Quadrupole moment (field-independent basis, Debye-Ang):
   XX=            -60.2655   YY=            -68.0381   ZZ=            -78.4666
   XY=             -1.3428   XZ=             -0.0002   YZ=              0.0002

 Normal termination of Gaussian 16 at Fri Jan 15 01:42:48 2021.
